CRYSTAL
PRIMVEC
  0.000000   2.715007   2.715007
  2.715007   0.000000   2.715007
  2.715007   2.715007   0.000000
PRIMCOORD
2 1
14   0.000000   0.000000   0.000000
14   1.357504   1.357504   1.357504
